  Input file(s): NiO-a256-dmc.xml 
================================================================
                        QMCPACK 4.0.0

          (c) Copyright 2003-2023 QMCPACK developers

                         Please cite:
      J. Kim et al. J. Phys. Cond. Mat. 30 195901 (2018)
           https://doi.org/10.1088/1361-648X/aab9c3
                             and
       P. Kent et al. J. Chem. Phys. 152 174105 (2020)
              https://doi.org/10.1063/5.0004860

  Git branch: HEAD
  Last git commit: 0199944fb644b4798446fdfc0549c81666a4a943
  Last git commit date: Wed Feb 5 15:42:41 2025 -0500
  Last git commit subject: Merge pull request #5298 from QMCPACK/rc_400
================================================================
  Global options 

  Total number of MPI ranks = 1536
  Number of MPI groups      = 1
  MPI group ID              = 0
  Number of ranks in group  = 1536
  MPI ranks per node        = 12
  Accelerators per node     = 1
  OMP 1st level threads     = 8
  OMP nested threading disabled or only 1 thread on the 2nd level

  Precision used in this calculation, see definitions in the manual:
  Base precision      = float
  Full precision      = double

  OpenMP target offload to accelerators build option is enabled
  SYCL acceleration build option is enabled
  Real build. QMC_COMPLEX=OFF
  Timer build option is enabled. Current timer level is fine

=================================================
--- Memory usage report : when QMCPACK starts ---
=================================================
Available memory on node 0, free + buffers :  797791 MiB
Memory footprint by rank 0 on node 0       :     651 MiB
Device memory allocated via OpenMP offload :       0 MiB
Device memory allocated via SYCL allocator :       0 MiB
Free memory on the default device          :   65474 MiB
=================================================

  Input XML = NiO-a256-dmc.xml

  Project = qmc
  date    = 2025-04-10 18:24:44 CDT
  host    = x4603c7s6b0n0


 Random Number
 -------------
  Offset for the random number seeds from input file (mod 1024): 2

  Range of prime numbers to use as seeds over processors and threads = 7-131591


 Lattice
 -------
  Simulation cell radius   = 12.364886 bohr
  Wigner-Seitz cell radius = 12.461113 bohr

  Overwriting global supercell 
  Long-range breakup parameters:
    rc*kc = 15.000000; rc = 12.364886; kc = 1.213113; tol = 0.000300
  KContainer initialised with cutoff 1.213113
   # of K-shell  = 114
   # of K points = 468

  Lattice (bohr):      3.9405500889    -19.7027492523     15.7622003555
                      23.6432991028      7.8811001778                 0
                      -3.9405500889     19.7027492523     15.7622003555

  Boundary Conditions:  p  p  p 

  Volume (bohr^3) = 15664.2812500000

  Reciprocal vectors without 2*pi.
    g_1 =       0.0079303654     -0.0237910952      0.0317214578
    g_2 =       0.0396518260      0.0079303654     -0.0000000001
    g_3 =      -0.0079303654      0.0237910952      0.0317214578

  Metric tensor in real-space.
    h_1 = 652.1732177734 -62.1117401123 -155.2792968750 
    h_2 = -62.1117401123 621.1173095703 62.1117401123 
    h_3 = -155.2792968750 62.1117401123 652.1732177734 

  Metric tensor in g-space.
    h_1 = 0.0645534396 0.0049656504 0.0148969432 
    h_2 = 0.0049656504 0.0645534471 -0.0049656504 
    h_3 = 0.0148969432 -0.0049656504 0.0645534396 

 Particle Set
 ------------
  Name: i   Offload : yes

  All the species have the same mass 1.0000000000

  Creating Structure Factor for periodic systems 1.2131127119
  Particle set size: 256   Groups : 2


 Particle Set
 ------------
  Name: e   Offload : yes

  All the species have the same mass 1.0000000000

  Creating Structure Factor for periodic systems 1.2131127119
  Particle set size: 3072   Groups : 2


 Many-body wavefunction
 -------------------
  Name: psi0   Tasking: no

QMCPACK WARNING !!!!!!! Deprecated input style: creating SPO set inside determinantset. Support for this usage will soon be removed. SPO sets should be built outside using sposet_collection.
  Created SPOSet builder named 'einspline' of type einspline

   Single Slater determinant
   -------------------------

     Determinant
     -----------
      Name: updet   Spin group: 0   SPO name: updet

QMCPACK WARNING !!!!!!! Deprecated input style: creating SPO set inside determinantset. Support for this usage will soon be removed. SPO sets should be built outside using sposet_collection.
      Create a new SPO set updet

     Single particle orbitals (SPO)
     ------------------------------
      Name: updet   Type: spline   Builder class name: EinsplineSetBuilder

	  MIXED_PRECISION=1 Overwriting the einspline storage to single precision.
  TileMatrix = 
 [  0 -5  1
    2  0  4
    2  3 -3 ]
  Reading 1536 orbitals from HDF5 file.
  HDF5 orbital file version 2.1.0
  Reading orbital file in ESHDF format.
  ESHDF orbital file version 2.1.0
  Lattice = 
    [  3.940550  3.940550  7.881100
       0.000000  3.940550 -3.940550
       3.940550  0.000000 -3.940550 ]
  SuperLattice = 
    [  3.940550 -19.702750 15.762200
      23.643300  7.881100  0.000000
      -3.940550 19.702750 15.762200 ]

bands=29, elecs=3072, spins=2, twists=64
Atom type(0) = 8
Atom type(1) = 8
Atom type(2) = 28
Atom type(3) = 28
   Skip initialization of the density
TIMER  EinsplineSetBuilder::ReadOrbitalInfo 0.0345401630
TIMER  EinsplineSetBuilder::BroadcastOrbitalInfo 0.0006218670
Found 1 distinct supercell twist based on 64 primitive cell k-points
Super twist #0:  [   0.00000   0.00000   0.00000 ]
QMCPACK WARNING twist attribute exists. twistnum attribute ignored. To prevent this message, remove twistnum from input.
  Using supercell twist 0:  [   0.00000   0.00000   0.00000]
Using 1 copies of twist angle [ 0.000,  0.000,  0.000]
Using 2 copies of twist angle [ 0.000,  0.250,  0.250]
Using 1 copies of twist angle [ 0.000,  0.500,  0.500]
Using 2 copies of twist angle [ 0.062, -0.406, -0.031]
Using 2 copies of twist angle [ 0.062, -0.156,  0.219]
Using 2 copies of twist angle [ 0.062,  0.094,  0.469]
Using 2 copies of twist angle [ 0.062,  0.344, -0.281]
Using 2 copies of twist angle [ 0.125, -0.312,  0.438]
Using 2 copies of twist angle [ 0.125, -0.062, -0.312]
Using 2 copies of twist angle [ 0.125,  0.188, -0.062]
Using 2 copies of twist angle [ 0.125,  0.438,  0.188]
Using 2 copies of twist angle [ 0.188, -0.469, -0.344]
Using 2 copies of twist angle [ 0.188, -0.219, -0.094]
Using 2 copies of twist angle [ 0.188,  0.031,  0.156]
Using 2 copies of twist angle [ 0.188,  0.281,  0.406]
Using 2 copies of twist angle [ 0.250, -0.375,  0.125]
Using 2 copies of twist angle [ 0.250, -0.125,  0.375]
Using 2 copies of twist angle [ 0.250,  0.125, -0.375]
Using 2 copies of twist angle [ 0.250,  0.375, -0.125]
Using 2 copies of twist angle [ 0.312, -0.281, -0.406]
Using 2 copies of twist angle [ 0.312, -0.031, -0.156]
Using 2 copies of twist angle [ 0.312,  0.219,  0.094]
Using 2 copies of twist angle [ 0.312,  0.469,  0.344]
Using 2 copies of twist angle [ 0.375, -0.438, -0.188]
Using 2 copies of twist angle [ 0.375, -0.188,  0.062]
Using 2 copies of twist angle [ 0.375,  0.062,  0.312]
Using 2 copies of twist angle [ 0.375,  0.312, -0.438]
Using 2 copies of twist angle [ 0.438, -0.344,  0.281]
Using 2 copies of twist angle [ 0.438, -0.094, -0.469]
Using 2 copies of twist angle [ 0.438,  0.156, -0.219]
Using 2 copies of twist angle [ 0.438,  0.406,  0.031]
Using 1 copies of twist angle [ 0.500,  0.000,  0.000]
Using 2 copies of twist angle [ 0.500,  0.250,  0.250]
Using 1 copies of twist angle [ 0.500,  0.500,  0.500]
Using complex splines.
986 complex-valued orbitals supplied by h5 can be expanded up to 1856 SPOs.
Sorting the bands now:
  Occupying bands based on energy in mode "ground"
We will read 816 distinct complex-valued orbitals from h5.
    Using real valued spline SPOs with complex single precision storage (C2R).
    Running OpenMP offload code path.
    Running OpenMP offload code path.
BandInfoGroup::selectBands bigspace has 986 distinct orbitals 
BandInfoGroup::selectBands using distinct orbitals [0,816)
  Number of distinct bands 816
  First Band index 0
  First SPO index 0
  Size of SPOs 1536
  ClassName = SplineC2ROMPTarget
  Using complex einspline table
NumDistinctOrbitals 816 numOrbs = 1536
B-spline mesh factor is 0.9000000000
B-spline mesh size is (112, 66, 66)
Maxmimum number of Gvecs 36419
MEMORY 3408 MB allocated for the coefficients in 3D spline orbital representation
Start transforming plane waves to 3D B-Splines.
  Time to gather the table = 3.5744087600
  SplineSetReader initialize_spline_pio 4.4160844440 sec
  Time to bcast the table = 1.4942677310
Time spent in creating B-spline SPOs 7.1813620500 sec
      Using rank-32 delayed update
      Using walker batching.
      Running on a GPU via SYCL acceleration and OpenMP offload.


     Determinant
     -----------
      Name: downdet   Spin group: 1   SPO name: downdet

QMCPACK WARNING !!!!!!! Deprecated input style: creating SPO set inside determinantset. Support for this usage will soon be removed. SPO sets should be built outside using sposet_collection.
      Create a new SPO set downdet

     Single particle orbitals (SPO)
     ------------------------------
      Name: downdet   Type: spline   Builder class name: EinsplineSetBuilder

	  MIXED_PRECISION=1 Overwriting the einspline storage to single precision.
986 complex-valued orbitals supplied by h5 can be expanded up to 1856 SPOs.
Sorting the bands now:
  Occupying bands based on energy in mode "ground"
We will read 816 distinct complex-valued orbitals from h5.
    Running OpenMP offload code path.
BandInfoGroup::selectBands bigspace has 986 distinct orbitals 
BandInfoGroup::selectBands using distinct orbitals [0,816)
  Number of distinct bands 816
  First Band index 0
  First SPO index 0
  Size of SPOs 1536
  ClassName = SplineC2ROMPTarget
  Using complex einspline table
NumDistinctOrbitals 816 numOrbs = 1536
B-spline mesh factor is 0.9000000000
B-spline mesh size is (112, 66, 66)
Maxmimum number of Gvecs 36419
MEMORY 3408 MB allocated for the coefficients in 3D spline orbital representation
Start transforming plane waves to 3D B-Splines.
  Time to gather the table = 2.7237357330
  SplineSetReader initialize_spline_pio 3.3015046810 sec
  Time to bcast the table = 1.5079375450
Time spent in creating B-spline SPOs 5.7770737710 sec
      Using rank-32 delayed update
      Using walker batching.
      Running on a GPU via SYCL acceleration and OpenMP offload.

  Added a fermionic WaveFunctionComponent SlaterDet

   Jastrow
   -------
    Name: J2   Type: Two-Body   Function: Bspline

    Running OpenMP offload code path.
    Radial function for species: u - u
     Number of parameters: 10
     Cusp: -0.2500000000
     Cutoff radius: 5.5727791786

     Name                        Value Type Recompute Use Index
     ---- ---------------------------- ---- --------- --- -----
     uu_0                 2.862236e-01    1         1  ON     0
     uu_1                 1.947737e-01    1         1  ON     1
     uu_2                 1.319545e-01    1         1  ON     2
     uu_3                 8.893394e-02    1         1  ON     3
     uu_4                 5.695576e-02    1         1  ON     4
     uu_5                 3.565959e-02    1         1  ON     5
     uu_6                 2.206950e-02    1         1  ON     6
     uu_7                 1.296086e-02    1         1  ON     7
     uu_8                 6.601007e-03    1         1  ON     8
     uu_9                 2.787144e-03    1         1  ON     9

    Radial function for species: u - d
     Number of parameters: 10
     Cusp: -0.5
     Cutoff radius: 5.57278

     Name                        Value Type Recompute Use Index
     ---- ---------------------------- ---- --------- --- -----
     ud_0                 3.689310e-01    1         1  ON     0
     ud_1                 2.226722e-01    1         1  ON     1
     ud_2                 1.484297e-01    1         1  ON     2
     ud_3                 9.617039e-02    1         1  ON     3
     ud_4                 5.918787e-02    1         1  ON     4
     ud_5                 3.660856e-02    1         1  ON     5
     ud_6                 2.262412e-02    1         1  ON     6
     ud_7                 1.322280e-02    1         1  ON     7
     ud_8                 6.736329e-03    1         1  ON     8
     ud_9                 2.871931e-03    1         1  ON     9


   Jastrow
   -------
    Name: J1   Type: One-Body   Function: Bspline

    Running OpenMP offload code path.
    Radial function for element: O - e
     Number of parameters: 10
     Cusp: 0
     Cutoff radius: 4.82617

     Name                        Value Type Recompute Use Index
     ---- ---------------------------- ---- --------- --- -----
      O_0                -2.249113e-01    1         1  ON     0
      O_1                -1.847495e-01    1         1  ON     1
      O_2                -1.154814e-01    1         1  ON     2
      O_3                -4.000123e-02    1         1  ON     3
      O_4                 1.731711e-02    1         1  ON     4
      O_5                 5.360132e-02    1         1  ON     5
      O_6                 5.983041e-02    1         1  ON     6
      O_7                 3.956000e-02    1         1  ON     7
      O_8                 1.739980e-02    1         1  ON     8
      O_9                 5.162164e-03    1         1  ON     9

    Radial function for element: Ni - e
     Number of parameters: 10
     Cusp: 0
     Cutoff radius: 4.82617

     Name                        Value Type Recompute Use Index
     ---- ---------------------------- ---- --------- --- -----
     Ni_0                -1.644855e+00    1         1  ON     0
     Ni_1                -1.470659e+00    1         1  ON     1
     Ni_2                -1.078894e+00    1         1  ON     2
     Ni_3                -6.878964e-01    1         1  ON     3
     Ni_4                -3.907005e-01    1         1  ON     4
     Ni_5                -1.962104e-01    1         1  ON     5
     Ni_6                -8.512755e-02    1         1  ON     6
     Ni_7                -2.752357e-02    1         1  ON     7
     Ni_8                -4.017983e-03    1         1  ON     8
     Ni_9                 7.665934e-04    1         1  ON     9

  Adding psi0 TrialWaveFunction to the pool

 Hamiltonian and observables
 ---------------------------
  Name: h0

  QMCHamiltonian::addOperator Kinetic to H, physical Hamiltonian 

   Pseudo Potential
   ----------------
    Name: PseudoPot   Wavefunction : psi0


  Adding pseudopotential for Ni
   Linear grid  ri=0 rf=10 npts = 10001
    ECPComponentBuilder::buildSemiLocalAndLocal 
QMCPACK WARNING Nrule was not determined from qmcpack input or pseudopotential file. Setting sensible default.
    Assuming Hartree unit
 l-local setting found in pseudopotential file and used.
   Number of angular momentum channels 3
   Maximum angular momentum channel (Lmax) 2
   Creating a Linear Grid Rmax=0.802458
  Using global grid with delta = 0.001
   Making L=1 a local potential with a radial cutoff of 9.999
  Quadrature Nrule: 4
    Non-local pseudopotential parameters
    Maximum angular momentum = 2
    Number of non-local channels = 2
       l(0)=0
       l(1)=2
    Cutoff radius = 0.803
    Number of spherical integration grid points = 12
    Spherical grid and weights: 
                        1                 0                 0       0.08333333582
                       -1   1.224646853e-16                 0       0.08333333582
             0.4472135901      0.8944271803                 0       0.08333333582
            -0.4472135901      0.7236068249      0.5257310867       0.08333333582
             0.4472135901      0.2763932049      0.8506507874       0.08333333582
            -0.4472135901     -0.2763932049      0.8506507874       0.08333333582
             0.4472135901     -0.7236068249      0.5257310867       0.08333333582
            -0.4472135901     -0.8944271803   1.095357398e-16       0.08333333582
             0.4472135901     -0.7236068249     -0.5257310867       0.08333333582
            -0.4472135901     -0.2763932049     -0.8506507874       0.08333333582
             0.4472135901      0.2763932049     -0.8506507874       0.08333333582
            -0.4472135901      0.7236068249     -0.5257310867       0.08333333582
    Maximum cutoff radius 0.8029999733

  Adding pseudopotential for O
   Linear grid  ri=0 rf=10 npts = 10001
    ECPComponentBuilder::buildSemiLocalAndLocal 
QMCPACK WARNING Nrule was not determined from qmcpack input or pseudopotential file. Setting sensible default.
    Assuming Hartree unit
 l-local setting found in pseudopotential file and used.
   Number of angular momentum channels 2
   Maximum angular momentum channel (Lmax) 1
   Creating a Linear Grid Rmax=0.927290976
  Using global grid with delta = 0.001
   Making L=0 a local potential with a radial cutoff of 9.998999311
  Quadrature Nrule: 4
    Non-local pseudopotential parameters
    Maximum angular momentum = 1
    Number of non-local channels = 1
       l(0)=1
    Cutoff radius = 0.9279999733
    Number of spherical integration grid points = 12
    Spherical grid and weights: 
                        1                 0                 0       0.08333333582
                       -1   1.224646853e-16                 0       0.08333333582
             0.4472135901      0.8944271803                 0       0.08333333582
            -0.4472135901      0.7236068249      0.5257310867       0.08333333582
             0.4472135901      0.2763932049      0.8506507874       0.08333333582
            -0.4472135901     -0.2763932049      0.8506507874       0.08333333582
             0.4472135901     -0.7236068249      0.5257310867       0.08333333582
            -0.4472135901     -0.8944271803   1.095357398e-16       0.08333333582
             0.4472135901     -0.7236068249     -0.5257310867       0.08333333582
            -0.4472135901     -0.2763932049     -0.8506507874       0.08333333582
             0.4472135901      0.2763932049     -0.8506507874       0.08333333582
            -0.4472135901      0.7236068249     -0.5257310867       0.08333333582
    Maximum cutoff radius 0.9279999733

  Creating CoulombHandler with the Esler Optimized Breakup. 
  KContainer initialised with cutoff 7.5335145
   # of K-shell  = 10842
   # of K points = 113172

  NUMBER OF OPT_BREAK KVECS = 30223364821
 finding kc:  1.213112712 , 1.213112712
  LRBreakp parameter Kc =1.213112712
    Continuum approximation in k = [7.533514566,485.2450611)

   LR Breakup chi^2 = 5.36114e-17
   Constant of PBCAB 37766
    CoulombPBCAB::initBreakup
  Setting a linear grid=[0,12.365) number of grid points =1001
  Rcut                12.365
  Maximum K shell     113
  Number of k vectors 468
    CoulombPBCAB::add 
 Setting a linear grid=[0,12.365) number of grid =10000
    Creating the short-range pseudopotential for species 0
    CoulombPBCAB::add 
 Setting a linear grid=[0,12.365) number of grid =10000
    Creating the short-range pseudopotential for species 1
  QMCHamiltonian::addOperator LocalECP to H, physical Hamiltonian 

  Using NonLocalECP potential 
    Maximum grid on a sphere for NonLocalECPotential: 12
    Using batched ratio computing in NonLocalECP
  QMCHamiltonian::addOperator NonLocalECP to H, physical Hamiltonian 

   Coulomb Potential
   -----------------
    Name: IonIon   Type: AA   PBC: yes

    Running OpenMP offload code path.
  Clone CoulombHandler. 
   PBCAA self-interaction term -5673.1
   PBCAA total constant -24556
    CoulombPBCAA::initBreakup
  Setting a linear grid=[0,12.365) number of grid points =1001
Checking ion-ion Ewald energy against reference...
  Check passed.
  Maximum K shell 113
  Number of k vectors 468
  Fixed Coulomb potential for i
    e-e Madelung Const. =-0.056912147
    Vtot     =-15315.088
  QMCHamiltonian::addOperator IonIon to H, physical Hamiltonian 
QMCHamiltonian::addOperatorType added type coulomb named IonIon

   Coulomb Potential
   -----------------
    Name: ElecElec   Type: AA   PBC: yes

    Running OpenMP offload code path.
  Clone CoulombHandler. 
   PBCAA self-interaction term -378.20743
   PBCAA total constant -19261.182
    CoulombPBCAA::initBreakup
  Setting a linear grid=[0,12.364886) number of grid points =1001
  Maximum K shell 113
  Number of k vectors 468
  Fixed Coulomb potential for e
    e-e Madelung Const. =-0.056912147
    Vtot     =0
  QMCHamiltonian::addOperator ElecElec to H, physical Hamiltonian 
QMCHamiltonian::addOperatorType added type coulomb named ElecElec

  QMCHamiltonian::add2WalkerProperty added
    5 to P::PropertyList 
    0 to P::Collectables 
    starting Index of the observables in P::PropertyList = 9
ParticleSetPool::randomize 1 ParticleSet.
<init source="i" target="e">
</init>
  Initialization Execution time = 15.12 secs
=========================================================
 Summary of QMC systems 
=========================================================
ParticleSetPool has: 

  ParticleSet 'e' contains 3072 particles :  u(1536) d(1536)

    u  4.1878981590e+00  3.0217857361e+00  2.6839044094e+00
    u  2.9773514271e+00  2.7960636616e+00  3.4436931610e+00
    u  5.3226079941e+00  4.6552772522e+00  3.6884634495e+00
    u  2.2519060135e+01  8.1428155899e+00  1.2894988060e+01
    u  2.2208564758e+01  7.4180274010e+00  1.1361687660e+01
    u  2.2856172562e+01  6.5589175224e+00  1.2163311005e+01
    u  5.3419637680e+00 -5.5979895592e-01  8.3362150192e+00
    u  2.6829760075e+00 -4.5678788424e-01  7.0478410721e+00
    u  4.6570844650e+00  6.3074076176e-01  6.6268229485e+00
    u  7.6067776680e+00  6.7434531450e-01  5.3385744095e+00
    (... and 3062 more particle positions ...)

  Distance table for similar particles (A-A):
    source/target: e
    Using structure-of-arrays (SoA) data layout and OpenMP offload
    Distance computations use general periodic cell in 3D with corner image checks.

  Distance table for dissimilar particles (A-B):
    source: i  target: e
    Using structure-of-arrays (SoA) data layout and OpenMP offload
    Distance computations use general periodic cell in 3D with corner image checks.


  ParticleSet 'i' contains 256 particles :  O(128) Ni(128)

    O  3.9405500889e+00  3.9405498505e+00  3.9405500889e+00
    O  2.9802322388e-08  2.3841857910e-07  1.1821650505e+01
    O  3.9405498505e+00  2.9802322388e-07  7.8811001778e+00
    O  7.8810997009e+00  2.3841857910e-07  3.9405500889e+00
    O -2.2351741791e-08  3.9405498505e+00  7.8811001778e+00
    O  3.9405500889e+00  3.9405498505e+00  1.9702751160e+01
    O  7.8810997009e+00  3.9405500889e+00  1.5762200356e+01
    O  1.1821649551e+01  3.9405500889e+00  1.1821650505e+01
    O  3.9405500889e+00  7.8810997009e+00  1.5762200356e+01
    O  7.8811006546e+00  7.8810997009e+00  1.1821650505e+01
    (... and 246 more particle positions ...)

  Distance table for similar particles (A-A):
    source/target: i
    Using structure-of-arrays (SoA) data layout and OpenMP offload
    Distance computations use general periodic cell in 3D with corner image checks.


  Hamiltonian h0
  Kinetic         Kinetic energy
  LocalECP        CoulombPBCAB potential source: i
  NonLocalECP     NonLocalECPotential: i
  IonIon          CoulombPBCAA potential: i_i
  ElecElec        CoulombPBCAA potential: e_e


========================================
  Reading VMC driver XML input section
========================================
<estimator> nodes not contained in <estimators>...</estimators> is a deprecated input xml idiom
  Random walking without drift
 Legacy constructor adding a default LocalEnergyEstimator for the MainEstimator 
  EstimatorManagerNew replaced its main estimator with LocalEnergy estimator.
EstimatorManager setup for this section:
  Main Estimator:  LocalEnergy

=========================================================
  Start VMCBatched
  File Root qmc.s001
=========================================================
==============================================================
--- Memory usage report : VMCBatched before initialization ---
==============================================================
Available memory on node 0, free + buffers :  713286 MiB
Memory footprint by rank 0 on node 0       :    7680 MiB
Device memory allocated via OpenMP offload :    6938 MiB
Device memory allocated via SYCL allocator :       0 MiB
Free memory on the default device          :   58406 MiB
==============================================================
VMCBatched Driver running with
             total_walkers     = 589824
             walkers_per_rank  = [384(x1536)]
             num_crowds        = 8
  on rank 0, walkers_per_crowd = [48(x8)]

                         steps = 1
                        blocks = 2

===================================================================
--- Memory usage report : VMCBatched after initialLogEvaluation ---
===================================================================
Available memory on node 0, free + buffers :  139499 MiB
Memory footprint by rank 0 on node 0       :   36780 MiB
Device memory allocated via OpenMP offload :   53959 MiB
Device memory allocated via SYCL allocator :       0 MiB
Free memory on the default device          :   11067 MiB
===================================================================
VMC Warmup completed in 2.3671e+02 secs
=====================================================
--- Memory usage report : VMCBatched after Warmup ---
=====================================================
Available memory on node 0, free + buffers :  135957 MiB
Memory footprint by rank 0 on node 0       :   37563 MiB
Device memory allocated via OpenMP offload :   54253 MiB
Device memory allocated via SYCL allocator :       0 MiB
Free memory on the default device          :   10704 MiB
=====================================================
Completed block    1 of 2 average 50.82 secs/block after 381.5 secs
Completed block    2 of 2 average 68.3 secs/block after 467.3 secs
====================================================
  End of a VMC section
    QMC counter        = 1
    time step          = 1
    reference energy   = -23725.2
    reference variance = 33632.9
====================================================
=============================================
--- Memory usage report : VMCBatched ends ---
=============================================
Available memory on node 0, free + buffers :  135953 MiB
Memory footprint by rank 0 on node 0       :   37563 MiB
Device memory allocated via OpenMP offload :   54253 MiB
Device memory allocated via SYCL allocator :       0 MiB
Free memory on the default device          :   10704 MiB
=============================================
  Carry over 589824 walker configurations to the next QMC driver.
  VMCBatched Execution time = 4.4575e+02 secs

========================================
  Reading VMC driver XML input section
========================================
<estimator> nodes not contained in <estimators>...</estimators> is a deprecated input xml idiom
  Random walking with drift
 Legacy constructor adding a default LocalEnergyEstimator for the MainEstimator 
  EstimatorManagerNew replaced its main estimator with LocalEnergy estimator.
EstimatorManager setup for this section:
  Main Estimator:  LocalEnergy

=========================================================
  Start VMCBatched
  File Root qmc.s002
=========================================================
==============================================================
--- Memory usage report : VMCBatched before initialization ---
==============================================================
Available memory on node 0, free + buffers :  474887 MiB
Memory footprint by rank 0 on node 0       :   37563 MiB
Device memory allocated via OpenMP offload :    6938 MiB
Device memory allocated via SYCL allocator :       0 MiB
Free memory on the default device          :   58017 MiB
==============================================================
VMCBatched Driver running with
             total_walkers     = 589824
             walkers_per_rank  = [384(x1536)]
             num_crowds        = 8
  on rank 0, walkers_per_crowd = [48(x8)]

                         steps = 1
                        blocks = 2

===================================================================
--- Memory usage report : VMCBatched after initialLogEvaluation ---
===================================================================
Available memory on node 0, free + buffers :  136691 MiB
Memory footprint by rank 0 on node 0       :   37563 MiB
Device memory allocated via OpenMP offload :   54230 MiB
Device memory allocated via SYCL allocator :       0 MiB
Free memory on the default device          :   10729 MiB
===================================================================
VMC Warmup completed in 2.6626e+02 secs
=====================================================
--- Memory usage report : VMCBatched after Warmup ---
=====================================================
Available memory on node 0, free + buffers :  136608 MiB
Memory footprint by rank 0 on node 0       :   37563 MiB
Device memory allocated via OpenMP offload :   54253 MiB
Device memory allocated via SYCL allocator :       0 MiB
Free memory on the default device          :   10700 MiB
=====================================================
Completed block    1 of 2 average 57.19 secs/block after 854.8 secs
Completed block    2 of 2 average 76.32 secs/block after 950.3 secs
====================================================
  End of a VMC section
    QMC counter        = 2
    time step          = 1
    reference energy   = -23732.5
    reference variance = 849.865
====================================================
=============================================
--- Memory usage report : VMCBatched ends ---
=============================================
Available memory on node 0, free + buffers :  136593 MiB
Memory footprint by rank 0 on node 0       :   37563 MiB
Device memory allocated via OpenMP offload :   54253 MiB
Device memory allocated via SYCL allocator :       0 MiB
Free memory on the default device          :   10700 MiB
=============================================
  Carry over 589824 walker configurations to the next QMC driver.
  VMCBatched Execution time = 4.8239e+02 secs

========================================
  Reading DMC driver XML input section
========================================
<estimator> nodes not contained in <estimators>...</estimators> is a deprecated input xml idiom
  Using Non-local T-moves v0, M. Casula, PRB 74, 161102(R) (2006)
 Legacy constructor adding a default LocalEnergyEstimator for the MainEstimator 
  EstimatorManagerNew replaced its main estimator with LocalEnergy estimator.
EstimatorManager setup for this section:
  Main Estimator:  LocalEnergy

=========================================================
  Start DMCBatched
  File Root qmc.s003
=========================================================
==============================================================
--- Memory usage report : DMCBatched before initialization ---
==============================================================
Available memory on node 0, free + buffers :  472901 MiB
Memory footprint by rank 0 on node 0       :   37563 MiB
Device memory allocated via OpenMP offload :    6938 MiB
Device memory allocated via SYCL allocator :       0 MiB
Free memory on the default device          :   58013 MiB
==============================================================
DMCBatched Driver running with
             total_walkers     = 589824
             walkers_per_rank  = [384(x1536)]
             num_crowds        = 8
  on rank 0, walkers_per_crowd = [48(x8)]

                         steps = 5
                        blocks = 5

  Creating the branching engine and walker controler
    Reference energy is updated using the unlimited_history scheme
  WalkerControl parameters 
    maxCopy = 2
    Max Walkers per MPI rank 769
    Min Walkers per MPI rank 77
    Using non-blocking send/recv
    Disable branching for debugging as the user input request.
  Fluctuating population
  Persistent walkers are killed after 10 MC sweeps
  BranchInterval = 1
  Steps per block = 5
  Number of blocks = 5

  DMC Engine Initialization = 3.6091e-03 secs
  START ALL OVER 
  QMC counter             = -1
  time step               = 1.0000e-03
  effective time step     = 1.0000e-03
  trial energy            = -2.3732e+04
  reference energy        = -2.3732e+04
  reference variance      = 8.1325e+02
  Feedback                = 1.0000e+00
  target walkers          = 589824
  branching cutoff scheme = classic
  branch cutoff, max      = 2.5000e+03 3.7500e+03
  QMC Status (BranchMode) = 0000001101
===================================================================
--- Memory usage report : DMCBatched after initialLogEvaluation ---
===================================================================
Available memory on node 0, free + buffers :  136479 MiB
Memory footprint by rank 0 on node 0       :   37563 MiB
Device memory allocated via OpenMP offload :   54230 MiB
Device memory allocated via SYCL allocator :       0 MiB
Free memory on the default device          :   10736 MiB
===================================================================
Completed block    1 of 5 average 85.85 secs/block after 1091 secs
Completed block    2 of 5 average 85.76 secs/block after 1176 secs
Completed block    3 of 5 average 85.65 secs/block after 1262 secs
Completed block    5 of 5 average 93.23 secs/block after 1471 secs
====================================================
  End of a DMC section
    QMC counter                   = -1
    time step                     = 0.001
    effective time step           = 0.000998049
    trial energy                  = -23740.9
    reference energy              = -23740.8
    reference variance            = 813.251
    target walkers                = 589824
    branch cutoff                 = 2500 3750
    Feedback                      = 1
    QMC Status (BranchMode)       = 0000001101
====================================================
=============================================
--- Memory usage report : DMCBatched ends ---
=============================================
Available memory on node 0, free + buffers :  134678 MiB
Memory footprint by rank 0 on node 0       :   37563 MiB
Device memory allocated via OpenMP offload :   54337 MiB
Device memory allocated via SYCL allocator :       0 MiB
Free memory on the default device          :   10468 MiB
=============================================
  Carry over 589824 walker configurations to the next QMC driver.
  DMCBatched Execution time = 5.2020e+02 secs
  Total Execution time = 1.4501e+03 secs

=========================================================
  A new xml input file : qmc.s003.cont.xml

Use --enable-timers=<value> command line option to increase or decrease level of timing information
Stack timer profile
Timer                                               Inclusive_time  Exclusive_time  Calls       Time_per_call
Total                                               1465.4947     1.7956              1    1465.494690530
  DMCBatched                                         520.2021     0.1083              1     520.202051304
    DMCBatched::InitWalkers                           48.3402     2.0059              1      48.340187613
      Hamiltonian:h0::evaluate                         4.0885     0.0000              1       4.088480624
        Hamiltonian:ElecElec                           0.1101     0.0000              1       0.110124361
          CoulombPBCAA::LongRange                      0.0001     0.0001             48       0.000002579
          CoulombPBCAA::ShortRange                     0.1100     0.0001              1       0.109982085
            CoulombPBCAA::offload                      0.0863     0.0863             24       0.003597004
            DTAAOMPTarget::evaluate_e_e                0.0236     0.0130             24       0.000981625
              DTAAOMPTarget::offload_e_e               0.0106     0.0106             24       0.000441140
        Hamiltonian:IonIon                             0.0000     0.0000              1       0.000006836
        Hamiltonian:Kinetic                            0.0006     0.0006              1       0.000601794
        Hamiltonian:LocalECP                           0.5908     0.5908              1       0.590793148
        Hamiltonian:NonLocalECP                        3.3869     0.1577              1       3.386945565
          ParticleSet:none::update                     1.0085     0.0031           1461       0.000690298
            DTABOMPTarget::evaluate_e_virtual          0.5817     0.0026           1461       0.000398146
              DTABOMPTarget::offload_e_virtual         0.5791     0.5791           1461       0.000396345
            DTABOMPTarget::evaluate_i_virtual          0.4238     0.0022           1461       0.000290044
              DTABOMPTarget::offload_i_virtual         0.4216     0.4216           1461       0.000288554
          WaveFunction:psi0::NLratio                   2.2207     0.0083           1461       0.001519985
            J1OrbitalSoA:J1::NLratio                   0.6347     0.6347           1461       0.000434446
            SlaterDet::NLratio                         0.8501     0.0029           1461       0.000581865
              DiracDeterminantBatched::ratio           0.0007     0.0007           1461       0.000000463
              DiracDeterminantBatched::spoval          0.8465     0.0302           1461       0.000579391
                SplineC2ROMPTarget::offload            0.8163     0.8163           1461       0.000558709
            TwoBodyJastrow:J2::NLratio                 0.7276     0.7276           1461       0.000498017
          WaveFunction:psi0::preparegroup              0.0000     0.0000              2       0.000006963
            J1OrbitalSoA:J1::preparegroup              0.0000     0.0000              2       0.000001002
            SlaterDet::preparegroup                    0.0000     0.0000              2       0.000003293
            TwoBodyJastrow:J2::preparegroup            0.0000     0.0000              2       0.000000922
      ParticleSet:none::donePbyP                       0.0071     0.0000              1       0.007079019
        StructFact::update_all_part                    0.0071     0.0071              1       0.007052703
      ParticleSet:none::loadWalker                     1.9752     0.0025              1       1.975206968
        DTAAOMPTarget::evaluate_e_e                    1.9475     1.9475             48       0.040573302
        DTABOMPTarget::evaluate_i_e                    0.0252     0.0030              1       0.025215096
          DTABOMPTarget::offload_i_e                   0.0222     0.0222              1       0.022217004
      WaveFunction:psi0::recompute                    40.2635     0.0031              1      40.263490297
        J1OrbitalSoA:J1::recompute                     0.3231     0.3231              1       0.323112420
        SlaterDet::recompute                          38.8998     0.9533              1      38.899752974
          DiracDeterminantBatched::H2D                 0.1104     0.1104              2       0.055216713
          DiracDeterminantBatched::inverse            33.8978    33.8978              2      16.948876458
          DiracDeterminantBatched::spovgl              3.9382     3.0755              2       1.969120417
            SplineC2ROMPTarget::offload                0.8627     0.8627           3072       0.000280839
        TwoBodyJastrow:J2::recompute                   1.0375     1.0375              1       1.037476408
    DMCBatched::Production                           466.1755     0.0265              1     466.175537874
      DMCBatched::BlockEndDataAggregation              0.1375     0.1375              5       0.027502431
      DMCBatched::RunSteps                           466.0116     5.6969             25      18.640462685
        DMCBatched::Buffer                            59.1257     0.0460             25       2.365029365
          WaveFunction:psi0::buffer                   59.0798     0.0675             25       2.363190967
            J1OrbitalSoA:J1::buffer                    0.0215     0.0215             25       0.000860383
            SlaterDet::buffer                         58.9619    22.3405             25       2.358476432
              DiracDeterminantBatched::H2D             0.0818     0.0818              2       0.040885140
              DiracDeterminantBatched::inverse        34.0949    34.0949              2      17.047473821
              DiracDeterminantBatched::spovgl          2.4447     1.6236              2       1.222339781
                SplineC2ROMPTarget::offload            0.8210     0.8210           3072       0.000267269
            TwoBodyJastrow:J2::buffer                  0.0289     0.0289             25       0.001154881
        DMCBatched::Collectables                       0.0002     0.0002             25       0.000007200
        DMCBatched::Estimators                         0.0001     0.0001             25       0.000002085
        DMCBatched::Hamiltonian                       96.6612     0.0005             25       3.866449743
          Hamiltonian:ElecElec                         2.3873     0.0007             25       0.095492692
            CoulombPBCAA::LongRange                    0.0052     0.0052           1200       0.000004355
            CoulombPBCAA::ShortRange                   2.3814     0.0020             25       0.095254067
              CoulombPBCAA::offload                    2.1240     2.1240            600       0.003540038
              DTAAOMPTarget::evaluate_e_e              0.2553     0.0002            600       0.000425543
                DTAAOMPTarget::offload_e_e             0.2552     0.2552            600       0.000425263
          Hamiltonian:IonIon                           0.0002     0.0002             25       0.000008305
          Hamiltonian:Kinetic                          0.0186     0.0186             25       0.000745710
          Hamiltonian:LocalECP                        15.3296    15.3296             25       0.613183297
          Hamiltonian:NonLocalECP                     78.9250     4.3650             25       3.156999560
            ParticleSet:none::update                  22.4768     0.0783          36481       0.000616124
              DTABOMPTarget::evaluate_e_virtual       12.7522     0.0635          36481       0.000349558
                DTABOMPTarget::offload_e_virtual      12.6887    12.6887          36481       0.000347816
              DTABOMPTarget::evaluate_i_virtual        9.6463     0.0598          36481       0.000264419
                DTABOMPTarget::offload_i_virtual       9.5864     9.5864          36481       0.000262778
            WaveFunction:psi0::NLratio                52.0828     0.2063          36481       0.001427668
              J1OrbitalSoA:J1::NLratio                15.0911    15.0911          36481       0.000413671
              SlaterDet::NLratio                      20.5679     0.0729          36481       0.000563799
                DiracDeterminantBatched::ratio         0.0161     0.0161          36481       0.000000442
                DiracDeterminantBatched::spoval       20.4789     0.6393          36481       0.000561359
                  SplineC2ROMPTarget::offload         19.8396    19.8396          36481       0.000543834
              TwoBodyJastrow:J2::NLratio              16.2174    16.2174          36481       0.000444543
            WaveFunction:psi0::preparegroup            0.0004     0.0001             50       0.000008324
              J1OrbitalSoA:J1::preparegroup            0.0001     0.0001             50       0.000001094
              SlaterDet::preparegroup                  0.0002     0.0002             50       0.000003451
              TwoBodyJastrow:J2::preparegroup          0.0001     0.0001             50       0.000001028
        DMCBatched::MovePbyP                         264.7092     0.3831             25      10.588366636
          ParticleSet:none::acceptMove                22.3309    19.8759          76800       0.000290766
            DTABOMPTarget::update_i_e                  2.4549     2.4549        3682020       0.000000667
          ParticleSet:none::computeNewPosDT           33.6011     0.6389          76800       0.000437514
            DTAAOMPTarget::move_e_e                   18.1499     0.0152          76800       0.000236327
              DTAAOMPTarget::offload_e_e              18.1348    18.1348          76800       0.000236130
            DTABOMPTarget::move_i_e                   14.4317    14.4317        3686400       0.000003915
            PosOMPTarget::copyActivePos                0.3806     0.3806          76800       0.000004956
          ParticleSet:none::donePbyP                   0.8092     0.0004             25       0.032366501
            StructFact::update_all_part                0.8087     0.8087             25       0.032349687
          WaveFunction:psi0::VGL                     142.8511     0.6568         153600       0.000930020
            J1OrbitalSoA:J1::VGL                       6.5442     6.5442         153600       0.000042606
            SlaterDet::VGL                           105.5241     0.1990         153600       0.000687006
              DiracDeterminantBatched::ratio          57.3970    57.3970          76800       0.000747357
              DiracDeterminantBatched::spovgl         47.9281     0.2631          76800       0.000624064
                SplineC2ROMPTarget::offload           47.6650    47.6650          76800       0.000620638
            TwoBodyJastrow:J2::VGL                    30.1259    30.1259         153600       0.000196132
          WaveFunction:psi0::accept                   64.7335     0.1625          76825       0.000842610
            J1OrbitalSoA:J1::accept                    0.1723     0.1723          76825       0.000002242
            SlaterDet::accept                         15.4699     0.1037          76825       0.000201365
              DiracDeterminantBatched::D2H             8.1713     8.1713             50       0.163425419
              DiracDeterminantBatched::update          7.1949     7.1949          76850       0.000093623
            TwoBodyJastrow:J2::accept                 48.9289    48.9289          76825       0.000636887
          WaveFunction:psi0::preparegroup              0.0003     0.0001             50       0.000006184
            J1OrbitalSoA:J1::preparegroup              0.0001     0.0001             50       0.000001162
            SlaterDet::preparegroup                    0.0001     0.0001             50       0.000002107
            TwoBodyJastrow:J2::preparegroup            0.0000     0.0000             50       0.000000958
        DMCBatched::Resources                          0.1387     0.1387             25       0.005547865
        DMCBatched::Step_begin_recompute               3.8215     0.0002             25       0.152860995
          ParticleSet:none::loadWalker                 1.0243     0.0003             25       0.040972794
            DTABOMPTarget::evaluate_i_e                1.0240     0.0307             25       0.040960937
              DTABOMPTarget::offload_i_e               0.9933     0.9933             25       0.039731468
          WaveFunction:psi0::recompute                 2.7970     0.0001             25       0.111879111
            J1OrbitalSoA:J1::recompute                 0.0000     0.0000             25       0.000001239
            SlaterDet::recompute                       0.0004     0.0004             25       0.000015891
            TwoBodyJastrow:J2::recompute               2.7965     2.7965             25       0.111858380
        DMCBatched::Tmove                             18.1860     0.1317             25       0.727439297
          ParticleSet:none::acceptMove                 0.1687     0.0028           1009       0.000167211
            DTAAOMPTarget::update_e_e                  0.1652     0.1652           1009       0.000163721
            DTABOMPTarget::update_i_e                  0.0007     0.0007           1009       0.000000710
          ParticleSet:none::computeNewPosDT            0.0624     0.0018           1009       0.000061823
            DTAAOMPTarget::move_e_e                    0.0539     0.0539           1009       0.000053397
            DTABOMPTarget::move_i_e                    0.0067     0.0067           1009       0.000006685
          ParticleSet:none::donePbyP                   0.0110     0.0110           1009       0.000010950
          WaveFunction:psi0::VGL                       0.5379     0.0024           1009       0.000533132
            J1OrbitalSoA:J1::VGL                       0.0037     0.0037           1009       0.000003659
            SlaterDet::VGL                             0.5167     0.0021           1009       0.000512138
              DiracDeterminantBatched::ratio           0.0062     0.0062           1009       0.000006158
              DiracDeterminantBatched::spovgl          0.5085     0.0639           1009       0.000503917
                SplineC2ROMPTarget::offload            0.4446     0.4446           1009       0.000440597
            TwoBodyJastrow:J2::VGL                     0.0151     0.0151           1009       0.000014968
          WaveFunction:psi0::accept                    2.6257     0.0042           2018       0.001301161
            J1OrbitalSoA:J1::accept                    0.0005     0.0005           2018       0.000000233
            SlaterDet::accept                          2.5990     0.0020           2018       0.001287922
              DiracDeterminantBatched::update          2.5970     2.5970           3027       0.000857948
            TwoBodyJastrow:J2::accept                  0.0220     0.0220           2018       0.000010922
          WaveFunction:psi0::buffer                   14.6459     0.0427             25       0.585834862
            J1OrbitalSoA:J1::buffer                    0.0158     0.0158             25       0.000633313
            SlaterDet::buffer                         14.5650    14.5650             25       0.582601553
            TwoBodyJastrow:J2::buffer                  0.0223     0.0223             25       0.000893857
          WaveFunction:psi0::preparegroup              0.0026     0.0016           1009       0.000002544
            J1OrbitalSoA:J1::preparegroup              0.0002     0.0002           1009       0.000000214
            SlaterDet::preparegroup                    0.0005     0.0005           1009       0.000000482
            TwoBodyJastrow:J2::preparegroup            0.0002     0.0002           1009       0.000000214
        WalkerControl::branch                         17.6721     0.0001             25       0.706884536
          WalkerControl::copyWalkers                   0.0000     0.0000             25       0.000001545
          WalkerControl::loadbalance                   0.0004     0.0004             25       0.000017127
          WalkerControl::pre-loadbalance              17.6716     0.0042             25       0.706863239
            WalkerControl::allreduce                  17.6674    17.6674             25       0.706695738
    DMCBatched::Startup                                5.5780     0.0688              1       5.578005910
      DMCBatched::CreateWalkers                        5.5092     5.5092              1       5.509243844
  Startup                                             15.3547     1.3729              1      15.354735855
    CoulombPBCAA::LongRange                            0.0000     0.0000              1       0.000004194
    CoulombPBCAA::ShortRange                           0.0001     0.0001              1       0.000077388
    EwaldRef                                           0.1377     0.0000              1       0.137709087
      EwaldSum                                         0.1377     0.1377              1       0.137674283
      MadelungSum                                      0.0000     0.0000              1       0.000031515
    ParticleSet:none::update                           0.0778     0.0054              5       0.015566911
      DTAAOMPTarget::evaluate_e_e                      0.0624     0.0624              2       0.031214910
      DTAAOMPTarget::evaluate_i_i                      0.0007     0.0007              3       0.000247709
      DTABOMPTarget::evaluate_i_e                      0.0027     0.0001              2       0.001353815
        DTABOMPTarget::offload_i_e                     0.0026     0.0026              2       0.001288272
      StructFact::update_all_part                      0.0065     0.0065              5       0.001302917
    einspline::CreateSPOSetFromXML                    13.7662    13.7660              2       6.883106719
      ParticleSet:none::update                         0.0002     0.0000              1       0.000235280
        DTAAOMPTarget::evaluate_i_i                    0.0002     0.0002              1       0.000228284
  VMCBatched                                         928.1423     0.0290              2     464.071139122
    VMCBatched::InitWalkers                           91.5731     1.5128              2      45.786552660
      Hamiltonian:h0::evaluate                         4.4107     0.0000              2       2.205332037
        Hamiltonian:ElecElec                           0.2580     0.0000              2       0.129020557
          CoulombPBCAA::LongRange                      0.0003     0.0003             96       0.000002759
          CoulombPBCAA::ShortRange                     0.2577     0.0002              2       0.128867569
            CoulombPBCAA::offload                      0.2108     0.2108             48       0.004391726
            DTAAOMPTarget::evaluate_e_e                0.0467     0.0290             48       0.000973115
              DTAAOMPTarget::offload_e_e               0.0177     0.0177             48       0.000368659
        Hamiltonian:IonIon                             0.0000     0.0000              2       0.000006706
        Hamiltonian:Kinetic                            0.0011     0.0011              2       0.000570709
        Hamiltonian:LocalECP                           1.1302     1.1302              2       0.565109105
        Hamiltonian:NonLocalECP                        3.0212     0.2163              2       1.510615725
          ParticleSet:none::update                     0.8721     0.0029           1384       0.000630124
            DTABOMPTarget::evaluate_e_virtual          0.5127     0.0020           1384       0.000370478
              DTABOMPTarget::offload_e_virtual         0.5107     0.5107           1384       0.000368998
            DTABOMPTarget::evaluate_i_virtual          0.3565     0.0021           1384       0.000257577
              DTABOMPTarget::offload_i_virtual         0.3544     0.3544           1384       0.000256042
          WaveFunction:psi0::NLratio                   1.9328     0.0073           1384       0.001396560
            J1OrbitalSoA:J1::NLratio                   0.6012     0.6012           1384       0.000434361
            SlaterDet::NLratio                         0.7489     0.0027           1384       0.000541083
              DiracDeterminantBatched::ratio           0.0007     0.0007           1384       0.000000508
              DiracDeterminantBatched::spoval          0.7455     0.0290           1384       0.000538621
                SplineC2ROMPTarget::offload            0.7165     0.7165           1384       0.000517673
            TwoBodyJastrow:J2::NLratio                 0.5755     0.5755           1384       0.000415843
          WaveFunction:psi0::preparegroup              0.0000     0.0000              4       0.000006410
            J1OrbitalSoA:J1::preparegroup              0.0000     0.0000              4       0.000001079
            SlaterDet::preparegroup                    0.0000     0.0000              4       0.000003134
            TwoBodyJastrow:J2::preparegroup            0.0000     0.0000              4       0.000000816
      ParticleSet:none::donePbyP                       0.0143     0.0000              2       0.007127001
        StructFact::update_all_part                    0.0142     0.0142              2       0.007110767
      ParticleSet:none::loadWalker                     3.9032     0.0046              2       1.951594425
        DTAAOMPTarget::evaluate_e_e                    3.7270     3.7270             96       0.038823207
        DTABOMPTarget::evaluate_i_e                    0.1716     0.0047              2       0.085791264
          DTABOMPTarget::offload_i_e                   0.1669     0.1669              2       0.083450175
      WaveFunction:psi0::recompute                    81.7322     0.0079              2      40.866100815
        J1OrbitalSoA:J1::recompute                     0.5797     0.5797              2       0.289852402
        SlaterDet::recompute                          79.0487     1.8266              2      39.524329655
          DiracDeterminantBatched::H2D                 0.4326     0.4326              4       0.108161336
          DiracDeterminantBatched::inverse            68.8854    68.8854              4      17.221351758
          DiracDeterminantBatched::spovgl              7.9040     6.3586              4       1.975998910
            SplineC2ROMPTarget::offload                1.5454     1.5454           6144       0.000251531
        TwoBodyJastrow:J2::recompute                   2.0960     2.0960              2       1.047977306
    VMCBatched::Production                           823.1776    30.9674              2     411.588823529
      VMCBatched::BlockEndDataAggregation              9.5401     9.5401              4       2.385027844
      VMCBatched::RunSteps                           782.6701     1.5045             14      55.905008876
        VMCBatched::Buffer                            94.5237     0.0250             14       6.751695644
          WaveFunction:psi0::buffer                   94.4987     0.0296             14       6.749909858
            J1OrbitalSoA:J1::buffer                    0.0115     0.0115             14       0.000822000
            SlaterDet::buffer                         94.4419     9.3340             14       6.745849789
              DiracDeterminantBatched::H2D             0.2285     0.2285              4       0.057134973
              DiracDeterminantBatched::inverse        67.4563    67.4563              4      16.864083320
              DiracDeterminantBatched::spovgl         17.4230    11.3946             16       1.088939685
                SplineC2ROMPTarget::offload            6.0284     6.0284          24576       0.000245297
            TwoBodyJastrow:J2::buffer                  0.0157     0.0157             14       0.001121625
        VMCBatched::Collectables                       0.0001     0.0001             14       0.000004102
        VMCBatched::Estimators                         0.0000     0.0000              4       0.000001806
        VMCBatched::Hamiltonian                       49.2065     0.0003             14       3.514748290
          Hamiltonian:h0::evaluate                    49.2062     0.0001             14       3.514728284
            Hamiltonian:ElecElec                       1.1888     0.0003             14       0.084910864
              CoulombPBCAA::LongRange                  0.0021     0.0021            672       0.000003148
              CoulombPBCAA::ShortRange                 1.1864     0.0015             14       0.084741717
                CoulombPBCAA::offload                  1.0860     1.0860            336       0.003232206
                DTAAOMPTarget::evaluate_e_e            0.0988     0.0001            336       0.000294119
                  DTAAOMPTarget::offload_e_e           0.0988     0.0988            336       0.000293919
            Hamiltonian:IonIon                         0.0001     0.0001             14       0.000007384
            Hamiltonian:Kinetic                        0.0095     0.0095             14       0.000677642
            Hamiltonian:LocalECP                       9.7200     9.7200             14       0.694288127
            Hamiltonian:NonLocalECP                   38.2877     2.4857             14       2.734835542
              ParticleSet:none::update                10.3102     0.0414          17892       0.000576249
                DTABOMPTarget::evaluate_e_virtual      5.8489     0.0343          17892       0.000326899
                  DTABOMPTarget::offload_e_virtual     5.8145     5.8145          17892       0.000324980
                DTABOMPTarget::evaluate_i_virtual      4.4200     0.0331          17892       0.000247037
                  DTABOMPTarget::offload_i_virtual     4.3869     4.3869          17892       0.000245188
              WaveFunction:psi0::NLratio              25.4915     0.1123          17892       0.001424743
                J1OrbitalSoA:J1::NLratio               7.0857     7.0857          17892       0.000396028
                SlaterDet::NLratio                     9.8877     0.0389          17892       0.000552635
                  DiracDeterminantBatched::ratio       0.0096     0.0096          17892       0.000000534
                  DiracDeterminantBatched::spoval      9.8393     0.3503          17892       0.000549926
                    SplineC2ROMPTarget::offload        9.4890     9.4890          17892       0.000530348
                TwoBodyJastrow:J2::NLratio             8.4057     8.4057          17892       0.000469801
              WaveFunction:psi0::preparegroup          0.0002     0.0001             28       0.000008918
                J1OrbitalSoA:J1::preparegroup          0.0000     0.0000             28       0.000001427
                SlaterDet::preparegroup                0.0001     0.0001             28       0.000004099
                TwoBodyJastrow:J2::preparegroup        0.0000     0.0000             28       0.000001178
        VMCBatched::MovePbyP                         637.3859     2.3507             14      45.527560803
          ParticleSet:none::acceptMove                45.6312    44.0052         215040       0.000212199
            DTABOMPTarget::update_i_e                  1.6260     1.6260        2436242       0.000000667
          ParticleSet:none::computeNewPosDT           84.6963     1.6162         215040       0.000393863
            DTAAOMPTarget::move_e_e                   41.9247     0.0411         215040       0.000194962
              DTAAOMPTarget::offload_e_e              41.8836    41.8836         215040       0.000194771
            DTABOMPTarget::move_i_e                   40.1554    40.1554       10321920       0.000003890
            PosOMPTarget::copyActivePos                1.0000     1.0000         215040       0.000004650
          ParticleSet:none::donePbyP                   0.0895     0.0001             14       0.006395824
            StructFact::update_all_part                0.0894     0.0894             14       0.006386823
          WaveFunction:psi0::V                       158.1087     0.3332         107520       0.001470505
            J1OrbitalSoA:J1::V                         1.3761     1.3761         107520       0.000012798
            SlaterDet::V                             118.5241     0.1530         107520       0.001102345
              DiracDeterminantBatched::spoval        118.3712    62.9294         107520       0.001100922
                SplineC2ROMPTarget::offload           55.4418    55.4418         107520       0.000515641
            TwoBodyJastrow:J2::V                      37.8754    37.8754         107520       0.000352264
          WaveFunction:psi0::VGL                     193.8270     0.9513         215040       0.000901353
            J1OrbitalSoA:J1::VGL                       9.2278     9.2278         215040       0.000042912
            SlaterDet::VGL                           143.1428     0.2801         215040       0.000665656
              DiracDeterminantBatched::ratio          78.2313    78.2313         107520       0.000727598
              DiracDeterminantBatched::spovgl         64.6313     0.3298         107520       0.000601110
                SplineC2ROMPTarget::offload           64.3015    64.3015         107520       0.000598043
            TwoBodyJastrow:J2::VGL                    40.5051    40.5051         215040       0.000188361
          WaveFunction:psi0::accept                  152.6816     0.5046         215110       0.000709784
            J1OrbitalSoA:J1::accept                    2.4619     2.4619         215110       0.000011445
            SlaterDet::accept                         27.2860     0.3752         215110       0.000126847
              DiracDeterminantBatched::D2H             6.8086     6.8086            140       0.048632935
              DiracDeterminantBatched::update         20.1021    20.1021         215180       0.000093420
            TwoBodyJastrow:J2::accept                122.4290   122.4290         215110       0.000569146
          WaveFunction:psi0::preparegroup              0.0008     0.0003            140       0.000005403
            J1OrbitalSoA:J1::preparegroup              0.0001     0.0001            140       0.000000608
            SlaterDet::preparegroup                    0.0003     0.0003            140       0.000002158
            TwoBodyJastrow:J2::preparegroup            0.0001     0.0001            140       0.000000686
        VMCBatched::Resources                          0.0495     0.0495             14       0.003535297
    VMCBatched::Startup                               13.3625     0.2304              2       6.681260174
      VMCBatched::CreateWalkers                       13.1321    13.1321              2       6.566035549

QMCPACK execution completed successfully
